/*--------------------------------*- C++ -*----------------------------------*\
  =========                 |
  \\      /  F ield         | OpenFOAM: The Open Source CFD Toolbox
   \\    /   O peration     | Website:  https://openfoam.org
    \\  /    A nd           | Version:  dev
     \\/     M anipulation  |
\*---------------------------------------------------------------------------*/
FoamFile
{
    version     2.0;
    format      ascii;
    class       volScalarField;
    location    "0";
    object      yPlus;
}
// * * * * * * * * * * * * * * * * * * * * * * * * * * * * * * * * * * * * * //

dimensions      [0 0 0 0 0 0 0];

internalField   uniform 0;

boundaryField
{
    outlet
    {
        type            calculated;
        value           uniform 0;
    }
    inlet
    {
        type            calculated;
        value           uniform 0;
    }
    front
    {
        type            wedge;
    }
    wall
    {
        type            calculated;
        value           nonuniform List<scalar> 
100
(
10.9055
10.7912
10.6489
10.4778
10.3361
10.2232
10.0814
9.94054
9.82811
9.68903
9.52211
9.38568
9.26748
9.14895
9.05445
8.9191
8.77084
8.66191
8.55107
8.39765
8.25376
8.1536
8.00584
7.86131
7.76267
7.66826
7.57914
7.48424
7.40383
7.33657
7.26163
7.18509
7.13418
7.10906
7.04966
6.98601
6.95545
6.91557
6.87222
6.80095
6.72619
6.71182
6.69296
6.67406
6.65491
6.60644
6.58718
6.59646
6.60298
6.60565
6.60565
6.60298
6.59646
6.58718
6.60644
6.65491
6.67406
6.69296
6.71182
6.72619
6.80095
6.87222
6.91557
6.95545
6.98601
7.04966
7.10906
7.13418
7.18509
7.26163
7.33657
7.40383
7.48424
7.57914
7.66826
7.76267
7.86131
8.00584
8.1536
8.25376
8.39765
8.55107
8.66191
8.77084
8.9191
9.05445
9.14895
9.26748
9.38568
9.52091
9.69765
9.84506
9.95269
10.0888
10.2256
10.3336
10.4703
10.6491
10.7987
10.9079
)
;
    }
    back
    {
        type            wedge;
    }
}


// ************************************************************************* //
